{
    "record": {
      "chemicals": [
        {
          "id": "CHM001",
          "productName": "Acetone",
          "casNumber": "67-64-1",
          "manufacturer": "ChemCorp Industries",
          "manufacturerContact": {
            "phone": "+1-800-555-0123",
            "email": "safety@chemcorp.com",
            "emergencyPhone": "+1-800-555-EMRG"
          },
          "physicalProperties": {
            "molecularWeight": 58.08,
            "boilingPoint": 56.05,
            "meltingPoint": -94.7,
            "density": 0.784,
            "vaporPressure": 184,
            "flashPoint": -20,
            "autoIgnitionTemp": 465
          },
          "hazardClassification": {
            "ghsClasses": [
              "Flammable Liquid Category 2",
              "Eye Irritation Category 2A",
              "STOT Single Exposure Category 3"
            ],
            "hazardStatements": [
              "H225",
              "H319",
              "H336"
            ],
            "precautionaryStatements": [
              "P210",
              "P233",
              "P240",
              "P241",
              "P242",
              "P243",
              "P261",
              "P264",
              "P271",
              "P280",
              "P303+P361+P353",
              "P304+P340",
              "P305+P351+P338",
              "P312",
              "P337+P313",
              "P370+P378",
              "P403+P233",
              "P403+P235",
              "P405",
              "P501"
            ],
            "signalWord": "Danger"
          },
          "exposureLimits": {
            "osha_pel": 1000,
            "acgih_tlv": 250,
            "niosh_rel": 250,
            "unit": "ppm"
          },
          "firstAid": {
            "inhalation": "Remove person to fresh air and keep comfortable for breathing. Call a poison center/doctor if you feel unwell.",
            "skinContact": "Wash with plenty of water. If skin irritation occurs, get medical attention.",
            "eyeContact": "Rinse cautiously with water for several minutes. Remove contact lenses if present and easy to do. Continue rinsing. If eye irritation persists, get medical attention.",
            "ingestion": "Call a poison center/doctor if you feel unwell. Rinse mouth."
          },
          "fireData": {
            "extinguishingMedia": "Foam, dry chemical, carbon dioxide, water spray",
            "hazardousCombustionProducts": "Carbon oxides",
            "fireHazards": "Highly flammable liquid and vapor. Vapor may travel considerable distance to source of ignition and flash back."
          },
          "storage": {
            "temperature": "Store at room temperature",
            "incompatibleMaterials": [
              "Strong oxidizing agents",
              "Strong bases",
              "Strong acids"
            ],
            "containerType": "Approved flammable liquid containers",
            "ventilationReq": "Use only in well-ventilated areas"
          },
          "sdsInfo": {
            "dateIssued": "2024-01-15",
            "dateRevised": "2024-07-20",
            "version": "3.2",
            "expiryDate": "2027-01-15",
            "status": "active",
            "complianceRegions": [
              "US",
              "EU",
              "Canada"
            ]
          },
          "inventoryData": {
            "currentStock": 450,
            "unit": "liters",
            "locations": [
              {
                "location": "Warehouse A-12",
                "quantity": 200,
                "lastUpdated": "2024-08-01"
              },
              {
                "location": "Lab Storage B-5",
                "quantity": 150,
                "lastUpdated": "2024-07-28"
              },
              {
                "location": "Production Floor C-3",
                "quantity": 100,
                "lastUpdated": "2024-08-02"
              }
            ],
            "reorderLevel": 100,
            "maxCapacity": 1000
          },
          "incidentHistory": [
            {
              "date": "2024-03-15",
              "type": "Minor Spill",
              "description": "50ml spill during transfer",
              "severity": "Low",
              "actionsTaken": "Area ventilated, spill cleaned with absorbent"
            }
          ]
        },
        {
          "id": "CHM002",
          "productName": "Hydrochloric Acid",
          "casNumber": "7647-01-0",
          "manufacturer": "AcidTech Solutions",
          "manufacturerContact": {
            "phone": "+1-800-555-0456",
            "email": "safety@acidtech.com",
            "emergencyPhone": "+1-800-555-ACID"
          },
          "physicalProperties": {
            "molecularWeight": 36.46,
            "boilingPoint": 85,
            "meltingPoint": -30,
            "density": 1.18,
            "vaporPressure": 42,
            "flashPoint": null,
            "autoIgnitionTemp": null
          },
          "hazardClassification": {
            "ghsClasses": [
              "Corrosive to Metals Category 1",
              "Skin Corrosion Category 1A",
              "Serious Eye Damage Category 1"
            ],
            "hazardStatements": [
              "H290",
              "H314",
              "H335"
            ],
            "precautionaryStatements": [
              "P234",
              "P260",
              "P264",
              "P271",
              "P280",
              "P301+P330+P331",
              "P303+P361+P353",
              "P304+P340",
              "P305+P351+P338",
              "P310",
              "P321",
              "P363",
              "P390",
              "P405",
              "P406",
              "P501"
            ],
            "signalWord": "Danger"
          },
          "exposureLimits": {
            "osha_pel": 5,
            "acgih_tlv": 2,
            "niosh_rel": 5,
            "unit": "ppm"
          },
          "firstAid": {
            "inhalation": "Remove person to fresh air and keep comfortable for breathing. Immediately call a poison center/doctor.",
            "skinContact": "Immediately remove contaminated clothing. Rinse skin with water/shower. Immediately call a poison center/doctor.",
            "eyeContact": "Rinse cautiously with water for several minutes. Remove contact lenses if present and easy to do. Continue rinsing. Immediately call a poison center/doctor.",
            "ingestion": "Rinse mouth. Do NOT induce vomiting. Immediately call a poison center/doctor."
          },
          "fireData": {
            "extinguishingMedia": "Use extinguishing measures appropriate to surrounding fire",
            "hazardousCombustionProducts": "Hydrogen chloride gas",
            "fireHazards": "Non-combustible but contact with metals may form flammable hydrogen gas"
          },
          "storage": {
            "temperature": "Store at room temperature",
            "incompatibleMaterials": [
              "Metals",
              "Alkaline materials",
              "Organic materials"
            ],
            "containerType": "Corrosion-resistant containers with tight-fitting lids",
            "ventilationReq": "Store in well-ventilated area with corrosion-resistant exhaust system"
          },
          "sdsInfo": {
            "dateIssued": "2024-02-10",
            "dateRevised": "2024-08-01",
            "version": "2.8",
            "expiryDate": "2027-02-10",
            "status": "active",
            "complianceRegions": [
              "US",
              "EU",
              "Canada",
              "Mexico"
            ]
          },
          "inventoryData": {
            "currentStock": 75,
            "unit": "liters",
            "locations": [
              {
                "location": "Acid Storage Room D-1",
                "quantity": 50,
                "lastUpdated": "2024-08-03"
              },
              {
                "location": "Lab Fume Hood B-2",
                "quantity": 25,
                "lastUpdated": "2024-08-01"
              }
            ],
            "reorderLevel": 20,
            "maxCapacity": 200
          },
          "incidentHistory": [
            {
              "date": "2024-05-22",
              "type": "Vapor Exposure",
              "description": "Employee exposure to vapors during routine handling",
              "severity": "Medium",
              "actionsTaken": "Employee medical evaluation, improved ventilation installed"
            },
            {
              "date": "2024-01-08",
              "type": "Container Leak",
              "description": "Small leak detected in storage container",
              "severity": "Low",
              "actionsTaken": "Container replaced, area neutralized and cleaned"
            }
          ]
        },
        {
          "id": "CHM003",
          "productName": "Sodium Hydroxide",
          "casNumber": "1310-73-2",
          "manufacturer": "AlkaliMax Corp",
          "manufacturerContact": {
            "phone": "+1-800-555-0789",
            "email": "safety@alkalimax.com",
            "emergencyPhone": "+1-800-555-BASE"
          },
          "physicalProperties": {
            "molecularWeight": 39.997,
            "boilingPoint": 1388,
            "meltingPoint": 318,
            "density": 2.13,
            "vaporPressure": 0.01,
            "flashPoint": null,
            "autoIgnitionTemp": null
          },
          "hazardClassification": {
            "ghsClasses": [
              "Corrosive to Metals Category 1",
              "Skin Corrosion Category 1A",
              "Serious Eye Damage Category 1"
            ],
            "hazardStatements": [
              "H290",
              "H314"
            ],
            "precautionaryStatements": [
              "P234",
              "P264",
              "P280",
              "P301+P330+P331",
              "P303+P361+P353",
              "P305+P351+P338",
              "P310",
              "P321",
              "P363",
              "P390",
              "P405",
              "P406",
              "P501"
            ],
            "signalWord": "Danger"
          },
          "exposureLimits": {
            "osha_pel": 2,
            "acgih_tlv": 2,
            "niosh_rel": 2,
            "unit": "mg/m³"
          },
          "firstAid": {
            "inhalation": "Remove person to fresh air and keep comfortable for breathing. Call a poison center/doctor if you feel unwell.",
            "skinContact": "Remove contaminated clothing. Rinse skin with water/shower. Immediately call a poison center/doctor.",
            "eyeContact": "Rinse cautiously with water for several minutes. Remove contact lenses if present and easy to do. Continue rinsing. Immediately call a poison center/doctor.",
            "ingestion": "Rinse mouth. Do NOT induce vomiting. Immediately call a poison center/doctor."
          },
          "fireData": {
            "extinguishingMedia": "Use extinguishing measures appropriate to surrounding fire",
            "hazardousCombustionProducts": "Sodium oxide",
            "fireHazards": "Non-combustible. May react violently with water generating heat and caustic vapors"
          },
          "storage": {
            "temperature": "Store at room temperature in dry conditions",
            "incompatibleMaterials": [
              "Acids",
              "Aluminum",
              "Zinc",
              "Organic materials"
            ],
            "containerType": "Tightly closed containers resistant to corrosion",
            "ventilationReq": "Store in well-ventilated, dry area"
          },
          "sdsInfo": {
            "dateIssued": "2024-03-05",
            "dateRevised": "2024-06-15",
            "version": "4.1",
            "expiryDate": "2027-03-05",
            "status": "active",
            "complianceRegions": [
              "US",
              "EU",
              "Canada",
              "Australia"
            ]
          },
          "inventoryData": {
            "currentStock": 125,
            "unit": "kg",
            "locations": [
              {
                "location": "Chemical Storage E-8",
                "quantity": 75,
                "lastUpdated": "2024-07-30"
              },
              {
                "location": "Production Line F-2",
                "quantity": 50,
                "lastUpdated": "2024-08-04"
              }
            ],
            "reorderLevel": 25,
            "maxCapacity": 300
          },
          "incidentHistory": []
        }
      ],
      "locations": [
        {
          "id": "LOC001",
          "name": "Warehouse A-12",
          "type": "Storage",
          "capacity": 5000,
          "currentOccupancy": 3200,
          "ventilationType": "Mechanical",
          "fireSuppressionSystem": "Sprinkler",
          "temperatureControl": true,
          "lastInspection": "2024-07-15"
        },
        {
          "id": "LOC002",
          "name": "Lab Storage B-5",
          "type": "Laboratory Storage",
          "capacity": 500,
          "currentOccupancy": 320,
          "ventilationType": "Fume Hood",
          "fireSuppressionSystem": "Clean Agent",
          "temperatureControl": true,
          "lastInspection": "2024-08-01"
        },
        {
          "id": "LOC003",
          "name": "Production Floor C-3",
          "type": "Production",
          "capacity": 1000,
          "currentOccupancy": 450,
          "ventilationType": "General Exhaust",
          "fireSuppressionSystem": "Sprinkler",
          "temperatureControl": false,
          "lastInspection": "2024-07-28"
        }
      ],
      "regulations": [
        {
          "region": "US",
          "standards": [
            "OSHA HCS",
            "EPA TSCA",
            "DOT"
          ],
          "lastUpdated": "2024-07-01"
        },
        {
          "region": "EU",
          "standards": [
            "CLP Regulation",
            "REACH",
            "ADR"
          ],
          "lastUpdated": "2024-06-15"
        },
        {
          "region": "Canada",
          "standards": [
            "WHMIS 2015",
            "CEPA",
            "TDG"
          ],
          "lastUpdated": "2024-05-20"
        }
      ],
      "dashboardMetrics": {
        "totalChemicals": 3,
        "activeSDSDocuments": 3,
        "expiringSoon": 0,
        "recentIncidents": 3,
        "complianceScore": 95,
        "lastAuditDate": "2024-07-01",
        "nextAuditDate": "2024-10-01"
      },
      "reports": {
        "monthlyUsage": [
          {
            "month": "Jan",
            "totalUsage": 245,
            "incidentCount": 0
          },
          {
            "month": "Feb",
            "totalUsage": 278,
            "incidentCount": 1
          },
          {
            "month": "Mar",
            "totalUsage": 312,
            "incidentCount": 1
          },
          {
            "month": "Apr",
            "totalUsage": 289,
            "incidentCount": 0
          },
          {
            "month": "May",
            "totalUsage": 334,
            "incidentCount": 1
          },
          {
            "month": "Jun",
            "totalUsage": 301,
            "incidentCount": 0
          },
          {
            "month": "Jul",
            "totalUsage": 267,
            "incidentCount": 0
          }
        ],
        "hazardDistribution": [
          {
            "category": "Flammable",
            "count": 1,
            "percentage": 33.3
          },
          {
            "category": "Corrosive",
            "count": 2,
            "percentage": 66.7
          },
          {
            "category": "Toxic",
            "count": 0,
            "percentage": 0
          },
          {
            "category": "Oxidizing",
            "count": 0,
            "percentage": 0
          }
        ],
        "complianceTracking": [
          {
            "region": "US",
            "compliant": 3,
            "nonCompliant": 0,
            "percentage": 100
          },
          {
            "region": "EU",
            "compliant": 3,
            "nonCompliant": 0,
            "percentage": 100
          },
          {
            "region": "Canada",
            "compliant": 3,
            "nonCompliant": 0,
            "percentage": 100
          }
        ]
      }
    },
    "metadata": {
      "id": "68918782f7e7a370d1f4029d",
      "private": false,
      "createdAt": "2025-08-05T04:24:34.845Z",
      "name": "example-sds-data"
    }
  }